,FORMULA,PROPERTY: Microstructure,PROPERTY: Processing method,PROPERTY: BCC/FCC/other,PROPERTY: grain size ($\mu$m),PROPERTY: Exp. Density (g/cm$^3$),PROPERTY: Calculated Density (g/cm$^3$),PROPERTY: HV,PROPERTY: Type of test,PROPERTY: Test temperature ($^\circ$C),PROPERTY: YS (MPa),PROPERTY: UTS (MPa),PROPERTY: Elongation (%),PROPERTY: Elongation plastic (%),PROPERTY: Exp. Young modulus (GPa),PROPERTY: Calculated Young modulus (GPa),PROPERTY: O content (wppm),PROPERTY: N content (wppm),PROPERTY: C content (wppm)
1540,Hf1 Nb1 Ta1 Ti1,BCC,CAST,BCC,,,10.9,270.0,,,,,,,,119.0,,,
1541,Mo1 Nb1 Ta1 Ti1 W1,BCC,ANNEAL,BCC,,,11.8,482.0,,,,,,,,222.0,,,
1542,Mo1 Nb1 Ta1 Ti1 W1,BCC,CAST,BCC,,,11.8,446.0,,,,,,,,222.0,,,
1543,Mo1 Nb1 Ta1 Ti1,BCC,ANNEAL,BCC,,,10.0,407.0,,,,,,,,179.0,,,
1544,Mo1 Nb1 Ta1 Ti1,BCC,CAST,BCC,,,10.0,431.0,,,,,,,,179.0,,,